! Touchstone file exported from HFSS 2021.2.0
!        File:           D:/HFSS_Sims/GigaAmp_v2.aedt
!        Generated:      11:58:58 AM  Sep 13, 2023
!        Design:         GigaV2_04_minBW_CC_ind2
!        Project:        GigaAmp_v2
!        Setup:          BroadBand
!        Solution:       Sweep
!
! Variables:
!        I1_gap_2 = 15um
!        I1_width = 20um
!        I1_width_2 = 0.02mm
!        Inv_gap_factor = 1
!        Node2_to_3 = 0.85mm
!        R2_dup = 1
!        R2_offset = 100um
!        R2_stretch_y = 250um
!        R4_dup = 1
!        R4_offset = 100um
!        R4_stretch_x = 1010um
!        R4_stretch_y = 250um
!        cap2_cutout_x = -0.653mm
!        cap2_cutout_y = 0.615mm
!        cap2_finger_length = 450um
!        cap_cutout_gap = 100um
!        cap_cutout_x = -0.42mm
!        cap_cutout_y = 0.615mm
!        cap_finger_gap = 5um
!        cap_finger_length = 220um
!        cap_finger_sep = 0.05mm
!        cap_finger_width = 30um
!        cap_spine_length = 0.2075mm
!        cap_start_length = 0um
!        core_ind_sim_length = 400um
!        core_ind_sim_width = 100um
!        cpw50_gap = 20um
!        cpw50_miter_rad = 40um
!        cpw50_width = 0.1mm
!        cpw_width = 3um
!        extra_cutout_x = 400um
!        extra_cutout_x2 = 0um
!        junction_gap = 0.085mm
!        junction_size = 0.015mm
!        loop_length = 100um
!        loop_slope_length = 0.0075mm
!        loop_slope_width = 0.05mm
!        loop_spacing = 0.1mm
!        loop_trace_width = 15um
!        loop_width = 50um
!        num_fingers = 6
!        num_loops = 4
!        port_width = 1.8mm
!        pump_cap_cutout_gap = 0.15mm
!        pump_cap_finger_length = 425um
!        pump_cap_finger_sep = 5um
!        pump_cap_finger_width = 0.03mm
!        pump_cap_length = 0.55mm
!        pump_cap_num_fingers = 4
!        pump_cap_spine_length = 137.5um
!        res0_cpw_gap = 0.01mm
!        res1_ind_sim_length = 0.8mm
!        res1_ind_sim_width = 10um
!        rot_angle = 0
!        spine_width = 100um
!        taper_length = 200um
!        tlin_wb_offset = 100um
!        wafer_x = 4mm
!        wafer_y = 4mm
!        wafer_z = 0.42mm
!        wb_cutout_width = 300um
!        wb_pad_edge_offset = 25um
!        wb_pad_rear_gnd_spacing = 0um
!        wb_pad_width = 0.3mm
!
!Data is not renormalized
# GHz S MA
! Terminal data exported
! Port[1] = 1
! Port[2] = 2
3                              0.97555913402381 103.966693456397 0.219737061231447 -72.4642380369169 0.219737061231446 -72.4642380369168 0.975559134025845 -68.8951695502697 
! Gamma         -0               154.100102711162 0                0                
! Port Impedance         45.0358551202894 0                50               0                
3.01201201201201               0.975098716440875 103.560156286548 0.221771084205903 -72.8176286930212 0.221771084205902 -72.8176286930212 0.975098739980701 -69.1954159772518 
! Gamma         0                154.71794212478  0                0                
! Port Impedance         45.0356129643074 0                50               -0               
3.02402402402402               0.974631148433534 103.152151044731 0.223816829434557 -73.1718770400992 0.223816829434556 -73.1718770400992 0.974631193186934 -69.4959094269841 
! Gamma         0                155.335791403998 0                0                
! Port Impedance         45.0353698929313 0                50               -0               
3.03603603603604               0.974156343128023 102.742667204674 0.225874308030174 -73.5269877733558 0.225874308030173 -73.5269877733558 0.974156406868881 -69.7966487793323 
! Gamma         0                155.953650588395 0                0                
! Port Impedance         45.035125906787  0                50               -0               
3.04804804804805               0.973674213063995 102.331694200682 0.227943529993986 -73.8829655726454 0.227943529993985 -73.8829655726453 0.973674293663492 -70.0976328436897 
! Gamma         0                156.571519717553 0                0                
! Port Impedance         45.0348810065028 0                50               -0               
3.06006006006006               0.973184670204338 101.919221428274 0.230024504185442 -74.2398151013407 0.230024504185442 -74.2398151013406 0.973184765630083 -70.3988603573562 
! Gamma         0                157.189398831059 0                0                
! Port Impedance         45.0346351927097 0                50               -0               
3.07207207207207               0.972687625945577 101.505238244858 0.232117238291502 -74.5975410051709 0.232117238291501 -74.5975410051708 0.97268773426068 -70.7003299838875 
! Gamma         0                157.8072879685   0                0                
! Port Impedance         45.0343884660412 0                50               -0               
3.08408408408408               0.972182991128866 101.089733970433 0.234221738795495 -74.9561479110356 0.234221738795494 -74.9561479110355 0.972183110490964 -71.0020403114194 
! Gamma         0                158.425187169469 0                0                
! Port Impedance         45.034140827133  0                50               -0               
3.0960960960961                0.9716706760516  100.672697888307 0.236338010945553 -75.3156404257905 0.236338010945552 -75.3156404257905 0.97167080471181 -71.303989850964 
! Gamma         0                159.04309647356  0                0                
! Port Impedance         45.0338922766237 0                50               -0               
3.10810810810811               0.971150590479651 100.254119245855 0.238466058722596 -75.6760231350055 0.238466058722595 -75.6760231350054 0.971150726781483 -71.6061770346779 
! Gamma         0                159.66101592037  0                0                
! Port Impedance         45.0336428151542 0                50               -0               
3.12012012012012               0.970622643660253 99.8339872552981 0.240605884807911 -76.0373006016968 0.240605884807911 -76.0373006016967 0.970622786038455 -71.9086002141055 
! Gamma         0                160.278945549499 0                0                
! Port Impedance         45.0333924433679 0                50               -0               
3.13213213213213               0.970086744335545 99.4122910945114 0.242757490550289 -76.3994773650293 0.242757490550288 -76.3994773650292 0.970086891314901 -72.2112576583925 
! Gamma         0                160.896885400551 0                0                
! Port Impedance         45.0331411619108 0                50               -0               
3.14414414414414               0.969542800756804 98.9890199078633 0.244920875932743 -76.7625579389916 0.244920875932742 -76.7625579389915 0.969542950950875 -72.5141475524732 
! Gamma         0                161.514835513132 0                0                
! Port Impedance         45.0328889714314 0                50               -0               
3.15615615615616               0.968990720699362 98.5641628070815 0.247096039538821 -77.1265468110423 0.24709603953882 -77.1265468110422 0.968990872809172 -72.8172679952301 
! Gamma         0                162.132795926853 0                0                
! Port Impedance         45.0326358725805 0                50               -0               
3.16816816816817               0.968430411478246 98.1377088721526 0.24928297851849 -77.491448440727 0.249282978518489 -77.4914484407269 0.968430564290921 -73.1206169976252 
! Gamma         0                162.750766681324 0                0                
! Port Impedance         45.0323818660117 0                50               -0               
3.18018018018018               0.96786177996455 97.7096471522467 0.251481688553639 -77.8572672582685 0.251481688553638 -77.8572672582684 0.967861932351899 -73.4241924808067 
! Gamma         0                163.368747816161 0                0                
! Port Impedance         45.032126952381  0                50               -0               
3.19219219219219               0.967284732602549 97.2799666666777 0.253692163823159 -78.224007663125 0.253692163823158 -78.2240076631249 0.967284883519599 -73.7279922741847 
! Gamma         0                163.986739370985 0                0                
! Port Impedance         45.0318711323469 0                50               -0               
3.2042042042042                0.96669917542759 96.8486564058931 0.255914396967649 -78.591674022521 0.255914396967649 -78.5916740225209 0.966699323911068 -74.032014113482 
! Gamma         0                164.604741385415 0                0                
! Port Impedance         45.0316144065702 0                50               -0               
3.21621621621622               0.966105014084762 96.4157053324952 0.258148379053727 -78.9602706699481 0.258148379053726 -78.9602706699479 0.966105159251531 -74.3362556387575 
! Gamma         0                165.222753899077 0                0                
! Port Impedance         45.0313567757147 0                50               -0               
3.22822822822823               0.965502153848369 95.9811023822963 0.260394099537965 -79.329801903634 0.260394099537964 -79.329801903634 0.965502294893814 -74.6407143924007 
! Gamma         0                165.840776951599 0                0                
! Port Impedance         45.0310982404462 0                50               -0               
3.24024024024024               0.964890499642228 95.5448364654042 0.26265154623047 -79.7002719849863 0.262651546230469 -79.7002719849862 0.964890635838596 -74.9453878171025 
! Gamma         0                166.458810582611 0                0                
! Port Impedance         45.0308388014333 0                50               -0               
3.25225225225225               0.964269956060802 95.1068964673435 0.264920705258087 -80.0716851370008 0.264920705258086 -80.0716851370007 0.964270086755499 -75.2502732537963 
! Gamma         0                167.076854831749 0                0                
! Port Impedance         45.030578459347  0                50               -0               
3.26426426426426               0.963640427391194 94.6672712502095 0.267201561027271 -80.4440455426435 0.26720156102727 -80.4440455426434 0.963640552005031 -75.5553679395738 
! Gamma         0                167.694909738649 0                0                
! Port Impedance         45.0303172148609 0                50               -0               
3.27627627627628               0.963001817636014 94.2259496538563 0.269494096186611 -80.8173573432007 0.26949409618661 -80.8173573432005 0.963001935661418 -75.8606690055751 
! Gamma         0                168.312975342951 0                0                
! Port Impedance         45.0300550686511 0                50               -0               
3.28828828828829               0.96235403053714 93.782920497121  0.271798291589026 -81.1916246365971 0.271798291589026 -81.191624636597 0.96235414153632 -76.166173474851 
! Gamma         0                168.931051684299 0                0                
! Port Impedance         45.029792021396  0                50               -0               
3.3003003003003                0.961696969600394 93.3381725790806 0.27411412625367 -81.5668514756878 0.27411412625367 -81.5668514756877 0.96169707320346 -76.4718782602017 
! Gamma         0                169.549138802341 0                0                
! Port Impedance         45.0295280737768 0                50               -0               
3.31231231231231               0.961030538121142 92.8916946803471 0.276441577327504 -81.9430418665149 0.276441577327504 -81.9430418665147 0.961030634024198 -76.7777801619888 
! Gamma         0                170.167236736726 0                0                
! Port Impedance         45.029263226477  0                50               -0               
3.32432432432432               0.960354639210852 92.4434755643973 0.278780620046607 -82.3201997665359 0.278780620046607 -82.3201997665358 0.960354727174034 -77.0838758659225 
! Gamma         0                170.785345527108 0                0                
! Port Impedance         45.0289974801829 0                50               -0               
3.33633633633634               0.959669175824602 91.9935039789397 0.281131227697205 -82.6983290828221 0.281131227697204 -82.698329082822 0.959669255670098 -77.3901619408247 
! Gamma         0                171.403465213143 0                0                
! Port Impedance         45.0287308355829 0                50               -0               
3.34834834834835               0.958974050789595 91.5417686573198 0.283493371576436 -83.0774336702226 0.283493371576435 -83.0774336702225 0.958974122399615 -77.6966348363662 
! Gamma         0                172.021595834491 0                0                
! Port Impedance         45.0284632933681 0                50               -0               
3.36036036036036               0.958269166834652 91.0882583199589 0.285867020952896 -83.4575173295036 0.285867020952895 -83.4575173295035 0.958269230149372 -78.0032908807839 
! Gamma         0                172.639737430815 0                0                
! Port Impedance         45.0281948542324 0                50               -0               
3.37237237237237               0.95755442662074 90.6329616758357 0.288252143026944 -83.8385838054515 0.288252143026944 -83.8385838054514 0.957554481636211 -78.3101262785711 
! Gamma         0                173.257890041781 0                0                
! Port Impedance         45.0279255188716 0                50               -0               
3.38438438438438               0.95682973277253 90.1758674240034 0.290648702890806 -84.2206367849485 0.290648702890806 -84.2206367849484 0.956829779538562 -78.617137108147 
! Gamma         0                173.876053707058 0                0                
! Port Impedance         45.0276552879846 0                50               -0               
3.3963963963964                0.956094987911014 89.7169642551457 0.293056663488496 -84.6036798950174 0.293056663488496 -84.6036798950172 0.956095026529021 -78.9243193195048 
! Gamma         0                174.494228466321 0                0                
! Port Impedance         45.0273841622725 0                50               -0               
3.40840840840841               0.955350094687189 89.2562408531744 0.295475985575566 -84.987716700834 0.295475985575565 -84.9877167008338 0.955350125308017 -79.2316687318365 
! Gamma         0                175.112414359245 0                0                
! Port Impedance         45.0271121424391 0                50               -0               
3.42042042042042               0.954594955816826 88.7936858968627 0.297906627678718 -85.3727507037137 0.297906627678718 -85.3727507037135 0.954594978638551 -79.5391810311402 
! Gamma         0                175.730611425509 0                0                
! Port Impedance         45.0268392291903 0                50               -0               
3.43243243243243               0.953829474116351 88.3292880615219 0.300348546055291 -85.7587853390636 0.300348546055291 -85.7587853390635 0.953829489382053 -79.8468517678053 
! Gamma         0                176.348819704797 0                0                
! Port Impedance         45.0265654232351 0                50               -0               
3.44444444444444               0.953053552539836 87.8630360207173 0.302801694652637 -86.1458239743074 0.302801694652637 -86.1458239743072 0.953053560535352 -80.1546763541795 
! Gamma         0                176.967039236795 0                0                
! Port Impedance         45.0262907252846 0                50               -0               
3.45645645645646               0.952267094217135 87.3949184480241 0.305266025067431 -86.5338699067802 0.305266025067431 -86.5338699067801 0.952267095268794 -80.4626500621179 
! Gamma         0                177.585270061194 0                0                
! Port Impedance         45.0260151360526 0                50               -0               
3.46846846846847               0.951470002493166 86.9249240188272 0.307741486504921 -86.9229263615933 0.307741486504921 -86.9229263615932 0.951469996965501 -80.7707680205143 
! Gamma         0                178.203512217684 0                0                
! Port Impedance         45.0257386562553 0                50               -0               
3.48048048048048               0.950662180968353 86.4530414121582 0.310228025738162 -87.3129964894722 0.310228025738162 -87.312996489472 0.950662169261803 -81.0790252128185 
! Gamma         0                178.821765745963 0                0                
! Port Impedance         45.0254612866114 0                50               -0               
3.49249249249249               0.949843533540258 85.9792593125779 0.312725587067237 -87.7040833645634 0.312725587067237 -87.7040833645632 0.94984351608885 -81.3874164745356 
! Gamma         0                179.440030685732 0                0                
! Port Impedance         45.0251830278424 0                50               -0               
3.5045045045045                0.9490139644464  85.5035664121001 0.315234112278513 -88.0961899822152 0.315234112278513 -88.096189982215 0.94901394171542 -81.6959364907134 
! Gamma         0                180.058307076693 0                0                
! Port Impedance         45.0249038806719 0                50               -0               
3.51651651651652               0.948173378308276 85.0259514121567 0.317753540603953 -88.4893192567295 0.317753540603953 -88.4893192567293 0.948173350791932 -82.0045797934164 
! Gamma         0                180.676594958553 0                0                
! Port Impedance         45.0246238458264 0                50               -0               
3.52852852852853               0.947321680176611 84.5464030256083 0.320283808680506 -88.8834740190857 0.320283808680506 -88.8834740190856 0.947321648395691 -82.3133407591875 
! Gamma         0                181.294894371023 0                0                
! Port Impedance         45.0243429240345 0                50               -0               
3.54054054054054               0.94645877557783 84.0649099787941 0.322824850509636 -89.2786570146409 0.322824850509636 -89.2786570146407 0.94645874007734 -82.6222136065015 
! Gamma         0                181.913205353816 0                0                
! Port Impedance         45.0240611160278 0                50               -0               
3.55255255255255               0.945584570561772 83.5814610136286 0.325376597416975 -89.6748709007997 0.325376597416974 -89.6748709007995 0.945584531908585 -82.9311923932073 
! Gamma         0                182.53152794665  0                0                
! Port Impedance         45.0237784225399 0                50               -0               
3.56456456456456               0.944698971750657 83.0960448897407 0.327938978012173 -90.0721182446616 0.327938978012173 -90.0721182446615 0.944698930531154 -83.2402710139645 
! Gamma         0                183.149862189244 0                0                
! Port Impedance         45.0234948443074 0                50               -0               
3.57657657657658               0.943801886389317 82.6086503866565 0.330511918148967 -90.4704015206417 0.330511918148967 -90.4704015206416 0.943801843207024 -83.5494431976732 
! Gamma         0                183.768208121325 0                0                
! Port Impedance         45.0232103820692 0                50               -0               
3.58858858858859               0.942893222396686 82.119266306028  0.333095340885485 -90.8697231080667 0.333095340885485 -90.8697231080666 0.942893177869922 -83.8587025048984 
! Gamma         0                184.386565782618 0                0                
! Port Impedance         45.0229250365666 0                50               -0               
3.6006006006006                0.941972888418578 81.6278814739028 0.335689166444866 -91.2700852887492 0.335689166444866 -91.270085288749 0.941972843178099 -84.168042325295 
! Gamma         0                185.004935212856 0                0                
! Port Impedance         45.0226388085435 0                50               -0               
3.61261261261261               0.941040793881742 81.1344847430423 0.338293312176183 -91.6714902445373 0.338293312176183 -91.6714902445371 0.941040748568396 -84.4774558750284 
! Gamma         0                185.623316451774 0                0                
! Port Impedance         45.0223516987466 0                50               -0               
3.62462462462462               0.940096849049206 80.6390649952821 0.340907692515742 -92.0739400548426 0.340907692515742 -92.0739400548424 0.940096804311598 -84.7869361941976 
! Gamma         0                186.241709539109 0                0                
! Port Impedance         45.0220637079246 0                50               -0               
3.63663663663664               0.939140965076915 80.1416111439388 0.343532218948782 -92.4774366941473 0.343532218948782 -92.4774366941471 0.93914092156908 -85.096476144261 
! Gamma         0                186.860114514606 0                0                
! Port Impedance         45.0217748368291 0                50               -0               
3.64864864864865               0.938173054071667 79.6421121362626 0.346166799971619 -92.8819820294895 0.346166799971619 -92.8819820294894 0.938173012450759 -85.4060684054657 
! Gamma         0                187.478531418007 0                0                
! Port Impedance         45.0214850862142 0                50               -0               
3.66066066066066               0.937193029150349 79.1405569559325 0.348811341054287 -93.2875778179322 0.348811341054287 -93.2875778179321 0.937192990074339 -85.7157054742862 
! Gamma         0                188.096960289064 0                0                
! Port Impedance         45.0211944568363 0                50               -0               
3.67267267267267               0.936200804500458 78.6369346255996 0.351465744603701 -93.6942257040107 0.351465744603701 -93.6942257040106 0.936200768625865 -86.0253796608691 
! Gamma         0                188.715401167529 0                0                
! Port Impedance         45.0209029494545 0                50               -0               
3.68468468468468               0.935196295441946 78.1312342094759 0.354129909927394 -94.1019272171642 0.354129909927394 -94.1019272171641 0.935196263421568 -86.3350830864909 
! Gamma         0                189.333854093158 0                0                
! Port Impedance         45.0206105648304 0                50               -0               
3.6966966966967                0.934179418490337 77.6234448159672 0.356803733197881 -94.5106837691512 0.356803733197881 -94.510683769151 0.934179390971022 -86.6448076810286 
! Gamma         0                189.952319105714 0                0                
! Port Impedance         45.0203173037281 0                50               -0               
3.70870870870871               0.933150091421156 77.1135556003547 0.359487107417677 -94.9204966514481 0.359487107417677 -94.920496651448 0.933150069041587 -86.954545180445 
! Gamma         0                190.570796244958 0                0                
! Port Impedance         45.0200231669142 0                50               -0               
3.72072072072072               0.932108233335632 76.6015557675179 0.362179922385047 -95.3313670326377 0.362179922385047 -95.3313670326376 0.932108216724144 -87.2642871242956 
! Gamma         0                191.189285550658 0                0                
! Port Impedance         45.0197281551577 0                50               -0               
3.73273273273273               0.931053764727693 76.0874345747087 0.364882064660499 -95.7432959557814 0.364882064660499 -95.7432959557813 0.931053754500118 -87.5740248532534 
! Gamma         0                191.807787062587 0                0                
! Port Impedance         45.0194322692305 0                50               -0               
3.74474474474474               0.92998660755223 75.571181334368  0.3675934175341  -96.1562843357813 0.3675934175341  -96.1562843357811 0.929986604309771 -87.883749506658 
! Gamma         0                192.426300820519 0                0                
! Port Impedance         45.0191355099066 0                50               -0               
3.75675675675676               0.928906685294625 75.0527854169891 0.370313860993648 -96.5703329567333 0.370313860993648 -96.5703329567332 0.928906689621771 -88.1934520200928 
! Gamma         0                193.044826864234 0                0                
! Port Impedance         45.0188378779628 0                50               -0               
3.76876876876877               0.927813923041539 74.5322362540297 0.373043271693747 -96.9854424692699 0.373043271693747 -96.9854424692698 0.927813935504007 -88.5031231229884 
! Gamma         0                193.663365233513 0                0                
! Port Impedance         45.0185393741783 0                50               -0               
3.78078078078078               0.926708247552924 74.0095233408648 0.375781522925873 -97.4016133878988 0.375781522925873 -97.4016133878987 0.926708268695645 -88.8127533362624 
! Gamma         0                194.281915968143 0                0                
! Port Impedance         45.0182399993349 0                50               -0               
3.79279279279279               0.925589587335272 73.4846362397908 0.378528484589427 -97.8188460883331 0.378528484589427 -97.818846088333 0.925589617680417 -89.122332969991 
! Gamma         0                194.900479107915 0                0                
! Port Impedance         45.0179397542167 0                50               -0               
3.8048048048048                0.924457872716067 72.9575645830724 0.381284023163873 -98.2371408048195 0.381284023163874 -98.2371408048193 0.924457912761115 -89.4318521211209 
! Gamma         0                195.519054692622 0                0                
! Port Impedance         45.0176386396107 0                50               -0               
3.81681681681682               0.923313035919421 72.4282980760372 0.384048001682004 -98.656497627464 0.384048001682004 -98.6564976274639 0.923313086135269 -89.7413006712226 
! Gamma         0                196.137642762063 0                0                
! Port Impedance         45.0173366563061 0                50               -0               
3.82882882882883               0.922155011142882 71.8968265002163 0.386820279704369 -99.0769164995558 0.386820279704369 -99.0769164995557 0.922155071972007 -90.0506682842887 
! Gamma         0                196.756243356038 0                0                
! Port Impedance         45.0170338050947 0                50               -0               
3.84084084084084               0.920983734635373 71.3631397165283 0.389600713294967 -99.4983972148955 0.389600713294967 -99.4983972148954 0.920983806490042 -90.359944404582 
! Gamma         0                197.374856514354 0                0                
! Port Impedance         45.016730086771  0                50               -0               
3.85285285285285               0.919799144776264 70.8272276685121 0.392389154998206 -99.9209394151236 0.392389154998206 -99.9209394151235 0.919799228036791 -90.6691182545343 
! Gamma         0                197.993482276819 0                0                
! Port Impedance         45.0164255021319 0                50               -0               
3.86486486486486               0.918601182155518 70.2890803856041 0.395185453817223 -100.344542587055 0.395185453817223 -100.344542587055 0.918601277168579 -90.9781788327022 
! Gamma         0                198.612120683247 0                0                
! Port Impedance         45.0161200519767 0                50               -0               
3.87687687687688               0.917389789654904 69.7486879864607 0.397989455193611 -100.769206060023 0.397989455193611 -100.769206060022 0.917389896731905 -91.2871149117827 
! Gamma         0                199.230771773456 0                0                
! Port Impedance         45.0158137371075 0                50               -0               
3.88888888888889               0.916164912530237 69.206040682328  0.4008010009886  -101.194929003223 0.4008010009886  -101.194929003223 0.916165031945738 -91.5959150366912 
! Gamma         0                199.849435587265 0                0                
! Port Impedance         45.0155065583286 0                50               -0               
3.9009009009009                0.9149264984946  68.6611287804534 0.403619929465784 -101.621710423085 0.403619929465785 -101.621710423085 0.914926630484802 -91.9045675227093 
! Gamma         0                200.468112164501 0                0                
! Port Impedance         45.0151985164471 0                50               -0               
3.91291291291291               0.913674497802527 68.1139426875461 0.406446075275409 -102.04954916064 0.406446075275409 -102.04954916064 0.913674642563817 -92.2130604537026 
! Gamma         0                201.086801544992 0                0                
! Port Impedance         45.0148896122726 0                50               -0               
3.92492492492492               0.9124088633351  67.564472913281  0.409279269440307 -102.478443888913 0.409279269440307 -102.478443888913 0.912409021022655 -92.5213816804152 
! Gamma         0                201.70550376857  0                0                
! Port Impedance         45.014579846617  0                50               -0               